                         Program Version 5.0.1 -  RELEASE  -
|  1> #memory request in MB
|  2> %maxcore 4000
|  3> %pal nprocs=4
|  4> end
|  5> #method, basis set, type of calculation
|  6> #(optimization followed by frequency calculation)
|  7> ! m062X  def2-TZVP def2/J TIGHTSCF Opt Freq PAL2 defgrid3 Slowconv
|  8> %scf MaxIter 550
|  9>   end
| 10> %geom
| 11> Recalc_Hess 5
| 12> MaxIter 150
| 13> end
| 14> #xyz for cartesian coordinates, charge, spin multiplicity
| 15> *xyz 0 1
| 16> #atomic symbol, coordinates
| 17> C        0.091045000     -0.030261000      0.138972000
| 18> C       -1.092965000     -0.493047000      0.814891000
| 19> N        1.099489000      0.534711000      0.713970000
| 20> H       -1.974524000     -0.701803000      0.222564000
| 21> C       -1.143144000     -0.411036000      2.157562000
| 22> N        1.266019000      0.466869000      2.085065000
| 23> H       -2.068116000     -0.514503000      2.710615000
| 24> O        1.180347000     -0.935757000      2.582222000
| 25> C        0.082582000     -0.144435000      2.884265000
| 26> H        0.024950000      0.216819000      3.906754000
| 27> H        0.086672000      0.034313000     -0.945340000
| 28> *
| 29>
| 30>
| 31>
| 32>
| 33>                          ****END OF INPUT****
 Total Charge           Charge          ....    0
 Multiplicity           Mult            ....    1
 Number of Electrons    NEL             ....   50
FINAL SINGLE POINT ENERGY      -339.394592291798
FINAL SINGLE POINT ENERGY      -339.395811358528
FINAL SINGLE POINT ENERGY      -339.395906176521
FINAL SINGLE POINT ENERGY      -339.396028693649
FINAL SINGLE POINT ENERGY      -339.396045271977
FINAL SINGLE POINT ENERGY      -339.396046755942
                    ***********************HURRAY********************

CARTESIAN COORDINATES (ANGSTROEM)
---------------------------------
  C      0.098599   -0.030093    0.149998
  C     -1.092868   -0.501647    0.822850
  N      1.090618    0.544539    0.721463
  H     -1.963227   -0.730662    0.223865
  C     -1.150533   -0.397228    2.154558
  N      1.246865    0.455141    2.102834
  H     -2.074802   -0.482152    2.710004
  O      1.172980   -0.922630    2.541739
  C      0.086775   -0.133026    2.871826
  H      0.042621    0.188959    3.906241
  H      0.095328    0.030668   -0.933839

 Multiplicity           Mult            ....    1
 Number of Electrons    NEL             ....   50
 Basis Dimension        Dim             ....  241

ORBITAL ENERGIES
----------------

  NO   OCC          E(Eh)            E(eV)
   0   2.0000     -19.686149      -535.6874
   1   2.0000     -14.853768      -404.1916
   2   2.0000     -14.789345      -402.4385
   3   2.0000     -10.643849      -289.6339
   4   2.0000     -10.602804      -288.5170
   5   2.0000     -10.579799      -287.8910
   6   2.0000     -10.574755      -287.7537
   7   2.0000      -1.284152       -34.9435
   8   2.0000      -1.074848       -29.2481
   9   2.0000      -0.939305       -25.5598
  10   2.0000      -0.870643       -23.6914
  11   2.0000      -0.783167       -21.3110
  12   2.0000      -0.736375       -20.0378
  13   2.0000      -0.637113       -17.3367
  14   2.0000      -0.618558       -16.8318
  15   2.0000      -0.597818       -16.2675
  16   2.0000      -0.551270       -15.0008
  17   2.0000      -0.518509       -14.1093
  18   2.0000      -0.499843       -13.6014
  19   2.0000      -0.484598       -13.1866
  20   2.0000      -0.429921       -11.6987
  21   2.0000      -0.409835       -11.1522
  22   2.0000      -0.364018        -9.9054
  23   2.0000      -0.344501        -9.3744
  24   2.0000      -0.320237        -8.7141
  25   0.0000      -0.046541        -1.2664
  26   0.0000       0.042138         1.1466
  27   0.0000       0.069997         1.9047
  28   0.0000       0.094162         2.5623
  29   0.0000       0.112280         3.0553

MULLIKEN ATOMIC CHARGES
-----------------------
   0 C :   -0.057268
   1 C :   -0.145061
   2 N :   -0.116153
   3 H :    0.148023
   4 C :   -0.146640
   5 N :   -0.016666
   6 H :    0.160698
   7 O :   -0.234476
   8 C :    0.120382
   9 H :    0.138451
  10 H :    0.148709
Sum of atomic charges:   -0.0000000

LOEWDIN ATOMIC CHARGES
----------------------
   0 C :   -0.221681
   1 C :   -0.150950
   2 N :    0.056829
   3 H :    0.151415
   4 C :   -0.127152
   5 N :    0.046393
   6 H :    0.150867
   7 O :    0.149262
   8 C :   -0.337083
   9 H :    0.135653
  10 H :    0.146446

  Mayer bond orders larger than 0.100000
B(  0-C ,  1-C ) :   1.1071 B(  0-C ,  2-N ) :   1.8324 B(  0-C , 10-H ) :   0.9654
B(  1-C ,  3-H ) :   0.9596 B(  1-C ,  4-C ) :   1.7549 B(  2-N ,  5-N ) :   0.9532
B(  4-C ,  6-H ) :   0.9469 B(  4-C ,  8-C ) :   1.0641 B(  5-N ,  7-O ) :   0.8239
B(  5-N ,  8-C ) :   0.8834 B(  7-O ,  8-C ) :   1.0427 B(  8-C ,  9-H ) :   0.9717

FINAL SINGLE POINT ENERGY      -339.396046827547

DIPOLE MOMENT
-------------
                                X             Y             Z
Electronic contribution:      2.90370       0.13074       0.61918
Nuclear contribution   :     -4.52757      -0.36914      -0.62803
                        -----------------------------------------
Total Dipole Moment    :     -1.62386      -0.23839      -0.00885
                        -----------------------------------------
Magnitude (a.u.)       :      1.64129
Magnitude (Debye)      :      4.17183

VIBRATIONAL FREQUENCIES
-----------------------

Scaling factor for frequencies =  1.000000000  (already applied!)

   0:         0.00 cm**-1
   1:         0.00 cm**-1
   2:         0.00 cm**-1
   3:         0.00 cm**-1
   4:         0.00 cm**-1
   5:         0.00 cm**-1
   6:       230.23 cm**-1
   7:       321.27 cm**-1
   8:       481.02 cm**-1
   9:       554.42 cm**-1
  10:       598.76 cm**-1
  11:       676.76 cm**-1
  12:       709.61 cm**-1
  13:       783.12 cm**-1
  14:       843.16 cm**-1
  15:       898.40 cm**-1
  16:       972.73 cm**-1
  17:      1001.10 cm**-1
  18:      1020.75 cm**-1
  19:      1025.74 cm**-1
  20:      1045.23 cm**-1
  21:      1149.07 cm**-1
  22:      1179.53 cm**-1
  23:      1269.64 cm**-1
  24:      1367.17 cm**-1
  25:      1410.65 cm**-1
  26:      1453.85 cm**-1
  27:      1616.39 cm**-1
  28:      1721.63 cm**-1
  29:      3186.78 cm**-1
  30:      3189.47 cm**-1
  31:      3225.97 cm**-1
  32:      3243.08 cm**-1

IR SPECTRUM
-----------

 Mode   freq       eps      Int      T**2         TX        TY        TZ
       cm**-1   L/(mol*cm) km/mol    a.u.
----------------------------------------------------------------------------
  6:    230.23   0.001771    8.95  0.002400  ( 0.043194 -0.005315  0.022493)
  7:    321.27   0.000384    1.94  0.000373  (-0.016367  0.010183 -0.001333)
  8:    481.02   0.001011    5.11  0.000656  (-0.006683 -0.016322  0.018576)
  9:    554.42   0.000872    4.41  0.000491  ( 0.021955  0.002970  0.000057)
 10:    598.76   0.000948    4.79  0.000494  (-0.016211  0.001683 -0.015111)
 11:    676.76   0.000802    4.05  0.000370  ( 0.018873  0.000235 -0.003701)
 12:    709.61   0.004314   21.80  0.001897  (-0.027573  0.013221 -0.031016)
 13:    783.12   0.011018   55.68  0.004391  ( 0.004136 -0.066130  0.000465)
 14:    843.16   0.000246    1.24  0.000091  ( 0.004505  0.002996  0.007851)
 15:    898.40   0.001813    9.16  0.000630  (-0.016857  0.006970  0.017236)
 16:    972.73   0.000816    4.13  0.000262  ( 0.002594 -0.013548  0.008464)
 17:   1001.10   0.002901   14.66  0.000904  (-0.013931 -0.020835  0.016617)
 18:   1020.75   0.000384    1.94  0.000117  ( 0.003003 -0.007851 -0.006830)
 19:   1025.74   0.001267    6.40  0.000385  ( 0.004260 -0.010167 -0.016243)
 20:   1045.23   0.001872    9.46  0.000559  (-0.020518  0.006362  0.009878)
 21:   1149.07   0.000235    1.19  0.000064  (-0.000191 -0.001358 -0.007869)
 22:   1179.53   0.002018   10.20  0.000534  (-0.021301  0.002718 -0.008534)
 23:   1269.64   0.003762   19.01  0.000925  (-0.017139  0.024891  0.003361)
 24:   1367.17   0.000516    2.61  0.000118  ( 0.009851  0.003216 -0.003228)
 25:   1410.65   0.001634    8.26  0.000362  ( 0.002936 -0.008697 -0.016650)
 26:   1453.85   0.002862   14.46  0.000614  ( 0.000099 -0.000213 -0.024783)
 27:   1616.39   0.002399   12.12  0.000463  (-0.015629 -0.013187  0.006702)
 28:   1721.63   0.000505    2.55  0.000091  (-0.007384 -0.002346 -0.005608)
 29:   3186.78   0.002164   10.94  0.000212  ( 0.001427 -0.001220 -0.014436)
 30:   3189.47   0.001761    8.90  0.000172  ( 0.002401 -0.004933 -0.011926)
 31:   3225.97   0.000224    1.13  0.000022  (-0.000204  0.001554  0.004382)
 32:   3243.08   0.000184    0.93  0.000018  ( 0.003950  0.001208  0.000813)

--------------------------
THERMOCHEMISTRY AT 298.15K
--------------------------

Temperature         ... 298.15 K
Pressure            ... 1.00 atm
Total Mass          ... 96.09 AMU

Throughout the following assumptions are being made:
  (1) The electronic state is orbitally nondegenerate
  (2) There are no thermally accessible electronically excited states
  (3) Hindered rotations indicated by low frequency modes are not
      treated as such but are treated as vibrations and this may
      cause some error
  (4) All equations used are the standard statistical mechanics
      equations for an ideal gas
  (5) All vibrations are strictly harmonic

freq.     230.23  E(vib)   ...       0.32
freq.     321.27  E(vib)   ...       0.25
freq.     481.02  E(vib)   ...       0.15
freq.     554.42  E(vib)   ...       0.12
freq.     598.76  E(vib)   ...       0.10
freq.     676.76  E(vib)   ...       0.08
freq.     709.61  E(vib)   ...       0.07
freq.     783.12  E(vib)   ...       0.05
freq.     843.16  E(vib)   ...       0.04
freq.     898.40  E(vib)   ...       0.03
freq.     972.73  E(vib)   ...       0.03
freq.    1001.10  E(vib)   ...       0.02
freq.    1020.75  E(vib)   ...       0.02
freq.    1025.74  E(vib)   ...       0.02
freq.    1045.23  E(vib)   ...       0.02
freq.    1149.07  E(vib)   ...       0.01
freq.    1179.53  E(vib)   ...       0.01
freq.    1269.64  E(vib)   ...       0.01
freq.    1367.17  E(vib)   ...       0.01
freq.    1410.65  E(vib)   ...       0.00
freq.    1453.85  E(vib)   ...       0.00
freq.    1616.39  E(vib)   ...       0.00
freq.    1721.63  E(vib)   ...       0.00
freq.    3186.78  E(vib)   ...       0.00
freq.    3189.47  E(vib)   ...       0.00
freq.    3225.97  E(vib)   ...       0.00
freq.    3243.08  E(vib)   ...       0.00

------------
INNER ENERGY
------------

The inner energy is: U= E(el) + E(ZPE) + E(vib) + E(rot) + E(trans)
    E(el)   - is the total energy from the electronic structure calculation
              = E(kin-el) + E(nuc-el) + E(el-el) + E(nuc-nuc)
    E(ZPE)  - the the zero temperature vibrational energy from the frequency calculation
    E(vib)  - the the finite temperature correction to E(ZPE) due to population
              of excited vibrational states
    E(rot)  - is the rotational thermal energy
    E(trans)- is the translational thermal energy

Summary of contributions to the inner energy U:
Electronic energy                ...   -339.39604683 Eh
Zero point energy                ...      0.08013580 Eh      50.29 kcal/mol
Thermal vibrational correction   ...      0.00218482 Eh       1.37 kcal/mol
Thermal rotational correction    ...      0.00141627 Eh       0.89 kcal/mol
Thermal translational correction ...      0.00141627 Eh       0.89 kcal/mol
-----------------------------------------------------------------------
Total thermal energy                   -339.31089367 Eh

Summary of corrections to the electronic energy:
(perhaps to be used in another calculation)
Total thermal correction                  0.00501736 Eh       3.15 kcal/mol
Non-thermal (ZPE) correction              0.08013580 Eh      50.29 kcal/mol
-----------------------------------------------------------------------
Total correction                          0.08515316 Eh      53.43 kcal/mol

--------
ENTHALPY
--------

The enthalpy is H = U + kB*T
                kB is Boltzmann's constant
Total free energy                 ...   -339.31089367 Eh
Thermal Enthalpy correction       ...      0.00094421 Eh       0.59 kcal/mol
-----------------------------------------------------------------------
Total Enthalpy                    ...   -339.30994946 Eh

Note: Only C1 symmetry has been detected, increase convergence thresholds
      if your molecule has a higher symmetry. Symmetry factor of 1.0 is
      used for the rotational entropy correction.

Note: Rotational entropy computed according to Herzberg
Infrared and Raman Spectra, Chapter V,1, Van Nostrand Reinhold, 1945
Point Group:  C1, Symmetry Number:   1
Rotational constants in cm-1:     0.158837     0.132266     0.084050

Vibrational entropy computed according to the QRRHO of S. Grimme
Chem.Eur.J. 2012 18 9955

-------
ENTROPY
-------

The entropy contributions are T*S = T*(S(el)+S(vib)+S(rot)+S(trans))
     S(el)   - electronic entropy
     S(vib)  - vibrational entropy
     S(rot)  - rotational entropy
     S(trans)- translational entropy
The entropies will be listed as multiplied by the temperature to get
units of energy

Electronic entropy                ...      0.00000000 Eh      0.00 kcal/mol
Vibrational entropy               ...      0.00317897 Eh      1.99 kcal/mol
Rotational entropy                ...      0.01250347 Eh      7.85 kcal/mol
Translational entropy             ...      0.01881474 Eh     11.81 kcal/mol
-----------------------------------------------------------------------
Final entropy term                ...      0.03449719 Eh     21.65 kcal/mol

In case the symmetry of your molecule has not been determined correctly
or in case you have a reason to use a different symmetry number we print
out the resulting rotational entropy values for sn=1,12 :
 --------------------------------------------------------
|  sn= 1 | S(rot)=       0.01250347 Eh      7.85 kcal/mol|
|  sn= 2 | S(rot)=       0.01184902 Eh      7.44 kcal/mol|
|  sn= 3 | S(rot)=       0.01146618 Eh      7.20 kcal/mol|
|  sn= 4 | S(rot)=       0.01119456 Eh      7.02 kcal/mol|
|  sn= 5 | S(rot)=       0.01098387 Eh      6.89 kcal/mol|
|  sn= 6 | S(rot)=       0.01081173 Eh      6.78 kcal/mol|
|  sn= 7 | S(rot)=       0.01066618 Eh      6.69 kcal/mol|
|  sn= 8 | S(rot)=       0.01054010 Eh      6.61 kcal/mol|
|  sn= 9 | S(rot)=       0.01042889 Eh      6.54 kcal/mol|
|  sn=10 | S(rot)=       0.01032942 Eh      6.48 kcal/mol|
|  sn=11 | S(rot)=       0.01023943 Eh      6.43 kcal/mol|
|  sn=12 | S(rot)=       0.01015727 Eh      6.37 kcal/mol|
 --------------------------------------------------------

-------------------
GIBBS FREE ENERGY
-------------------

The Gibbs free energy is G = H - T*S

Total enthalpy                    ...   -339.30994946 Eh
Total entropy correction          ...     -0.03449719 Eh    -21.65 kcal/mol
-----------------------------------------------------------------------
Final Gibbs free energy         ...   -339.34444665 Eh

For completeness - the Gibbs free energy minus the electronic energy
G-E(el)                           ...      0.05160018 Eh     32.38 kcal/mol

                             ****ORCA TERMINATED NORMALLY****
TOTAL RUN TIME: 0 days 1 hours 19 minutes 39 seconds 175 msec
